# vtk DataFile Version 2.0
VTK from Matlab
ASCII
DATASET UNSTRUCTURED_GRID
POINTS 18915 float
0.6000 0.0000 0.0000 
0.0000 0.0000 0.0000 
0.0000 1.0000 0.0000 
0.6000 1.0000 0.0000 
3.0000 1.0000 0.0000 
3.0000 0.2000 0.0000 
0.6000 0.2000 0.0000 
0.0000 0.0125 0.0000 
0.0000 0.0250 0.0000 
0.0000 0.0375 0.0000 
0.0000 0.0500 0.0000 
0.0000 0.0625 0.0000 
0.0000 0.0750 0.0000 
0.0000 0.0875 0.0000 
0.0000 0.1000 0.0000 
0.0000 0.1125 0.0000 
0.0000 0.1250 0.0000 
0.0000 0.1375 0.0000 
0.0000 0.1500 0.0000 
0.0000 0.1625 0.0000 
0.0000 0.1750 0.0000 
0.0000 0.1875 0.0000 
0.0000 0.2000 0.0000 
0.0000 0.2125 0.0000 
0.0000 0.2250 0.0000 
0.0000 0.2375 0.0000 
0.0000 0.2500 0.0000 
0.0000 0.2625 0.0000 
0.0000 0.2750 0.0000 
0.0000 0.2875 0.0000 
0.0000 0.3000 0.0000 
0.0000 0.3125 0.0000 
0.0000 0.3250 0.0000 
0.0000 0.3375 0.0000 
0.0000 0.3500 0.0000 
0.0000 0.3625 0.0000 
0.0000 0.3750 0.0000 
0.0000 0.3875 0.0000 
0.0000 0.4000 0.0000 
0.0000 0.4125 0.0000 
0.0000 0.4250 0.0000 
0.0000 0.4375 0.0000 
0.0000 0.4500 0.0000 
0.0000 0.4625 0.0000 
0.0000 0.4750 0.0000 
0.0000 0.4875 0.0000 
0.0000 0.5000 0.0000 
0.0000 0.5125 0.0000 
0.0000 0.5250 0.0000 
0.0000 0.5375 0.0000 
0.0000 0.5500 0.0000 
0.0000 0.5625 0.0000 
0.0000 0.5750 0.0000 
0.0000 0.5875 0.0000 
0.0000 0.6000 0.0000 
0.0000 0.6125 0.0000 
0.0000 0.6250 0.0000 
0.0000 0.6375 0.0000 
0.0000 0.6500 0.0000 
0.0000 0.6625 0.0000 
0.0000 0.6750 0.0000 
0.0000 0.6875 0.0000 
0.0000 0.7000 0.0000 
0.0000 0.7125 0.0000 
0.0000 0.7250 0.0000 
0.0000 0.7375 0.0000 
0.0000 0.7500 0.0000 
0.0000 0.7625 0.0000 
0.0000 0.7750 0.0000 
0.0000 0.7875 0.0000 
0.0000 0.8000 0.0000 
0.0000 0.8125 0.0000 
0.0000 0.8250 0.0000 
0.0000 0.8375 0.0000 
0.0000 0.8500 0.0000 
0.0000 0.8625 0.0000 
0.0000 0.8750 0.0000 
0.0000 0.8875 0.0000 
0.0000 0.9000 0.0000 
0.0000 0.9125 0.0000 
0.0000 0.9250 0.0000 
0.0000 0.9375 0.0000 
0.0000 0.9500 0.0000 
0.0000 0.9625 0.0000 
0.0000 0.9750 0.0000 
0.0000 0.9875 0.0000 
0.0125 1.0000 0.0000 
0.0250 1.0000 0.0000 
0.0375 1.0000 0.0000 
0.0500 1.0000 0.0000 
0.0625 1.0000 0.0000 
0.0750 1.0000 0.0000 
0.0875 1.0000 0.0000 
0.1000 1.0000 0.0000 
0.1125 1.0000 0.0000 
0.1250 1.0000 0.0000 
0.1375 1.0000 0.0000 
0.1500 1.0000 0.0000 
0.1625 1.0000 0.0000 
0.1750 1.0000 0.0000 
0.1875 1.0000 0.0000 
0.2000 1.0000 0.0000 
0.2125 1.0000 0.0000 
0.2250 1.0000 0.0000 
0.2375 1.0000 0.0000 
0.2500 1.0000 0.0000 
0.2625 1.0000 0.0000 
0.2750 1.0000 0.0000 
0.2875 1.0000 0.0000 
0.3000 1.0000 0.0000 
0.3125 1.0000 0.0000 
0.3250 1.0000 0.0000 
0.3375 1.0000 0.0000 
0.3500 1.0000 0.0000 
0.3625 1.0000 0.0000 
0.3750 1.0000 0.0000 
0.3875 1.0000 0.0000 
0.4000 1.0000 0.0000 
0.4125 1.0000 0.0000 
0.4250 1.0000 0.0000 
0.4375 1.0000 0.0000 
0.4500 1.0000 0.0000 
0.4625 1.0000 0.0000 
0.4750 1.0000 0.0000 
0.4875 1.0000 0.0000 
0.5000 1.0000 0.0000 
0.5125 1.0000 0.0000 
0.5250 1.0000 0.0000 
0.5375 1.0000 0.0000 
0.5500 1.0000 0.0000 
0.5625 1.0000 0.0000 
0.5750 1.0000 0.0000 
0.5875 1.0000 0.0000 
0.5875 0.0000 0.0000 
0.5750 0.0000 0.0000 
0.5625 0.0000 0.0000 
0.5500 0.0000 0.0000 
0.5375 0.0000 0.0000 
0.5250 0.0000 0.0000 
0.5125 0.0000 0.0000 
0.5000 0.0000 0.0000 
0.4875 0.0000 0.0000 
0.4750 0.0000 0.0000 
0.4625 0.0000 0.0000 
0.4500 0.0000 0.0000 
0.4375 0.0000 0.0000 
0.4250 0.0000 0.0000 
0.4125 0.0000 0.0000 
0.4000 0.0000 0.0000 
0.3875 0.0000 0.0000 
0.3750 0.0000 0.0000 
0.3625 0.0000 0.0000 
0.3500 0.0000 0.0000 
0.3375 0.0000 0.0000 
0.3250 0.0000 0.0000 
0.3125 0.0000 0.0000 
0.3000 0.0000 0.0000 
0.2875 0.0000 0.0000 
0.2750 0.0000 0.0000 
0.2625 0.0000 0.0000 
0.2500 0.0000 0.0000 
0.2375 0.0000 0.0000 
0.2250 0.0000 0.0000 
0.2125 0.0000 0.0000 
0.2000 0.0000 0.0000 
0.1875 0.0000 0.0000 
0.1750 0.0000 0.0000 
0.1625 0.0000 0.0000 
0.1500 0.0000 0.0000 
0.1375 0.0000 0.0000 
0.1250 0.0000 0.0000 
0.1125 0.0000 0.0000 
0.1000 0.0000 0.0000 
0.0875 0.0000 0.0000 
0.0750 0.0000 0.0000 
0.0625 0.0000 0.0000 
0.0500 0.0000 0.0000 
0.0375 0.0000 0.0000 
0.0250 0.0000 0.0000 
0.0125 0.0000 0.0000 
0.6125 1.0000 0.0000 
0.6250 1.0000 0.0000 
0.6375 1.0000 0.0000 
0.6500 1.0000 0.0000 
0.6625 1.0000 0.0000 
0.6750 1.0000 0.0000 
0.6875 1.0000 0.0000 
0.7000 1.0000 0.0000 
0.7125 1.0000 0.0000 
0.7250 1.0000 0.0000 
0.7375 1.0000 0.0000 
0.7500 1.0000 0.0000 
0.7625 1.0000 0.0000 
0.7750 1.0000 0.0000 
0.7875 1.0000 0.0000 
0.8000 1.0000 0.0000 
0.8125 1.0000 0.0000 
0.8250 1.0000 0.0000 
0.8375 1.0000 0.0000 
0.8500 1.0000 0.0000 
0.8625 1.0000 0.0000 
0.8750 1.0000 0.0000 
0.8875 1.0000 0.0000 
0.9000 1.0000 0.0000 
0.9125 1.0000 0.0000 
0.9250 1.0000 0.0000 
0.9375 1.0000 0.0000 
0.9500 1.0000 0.0000 
0.9625 1.0000 0.0000 
0.9750 1.0000 0.0000 
0.9875 1.0000 0.0000 
1.0000 1.0000 0.0000 
1.0125 1.0000 0.0000 
1.0250 1.0000 0.0000 
1.0375 1.0000 0.0000 
1.0500 1.0000 0.0000 
1.0625 1.0000 0.0000 
1.0750 1.0000 0.0000 
1.0875 1.0000 0.0000 
1.1000 1.0000 0.0000 
1.1125 1.0000 0.0000 
1.1250 1.0000 0.0000 
1.1375 1.0000 0.0000 
1.1500 1.0000 0.0000 
1.1625 1.0000 0.0000 
1.1750 1.0000 0.0000 
1.1875 1.0000 0.0000 
1.2000 1.0000 0.0000 
1.2125 1.0000 0.0000 
1.2250 1.0000 0.0000 
1.2375 1.0000 0.0000 
1.2500 1.0000 0.0000 
1.2625 1.0000 0.0000 
1.2750 1.0000 0.0000 
1.2875 1.0000 0.0000 
1.3000 1.0000 0.0000 
1.3125 1.0000 0.0000 
1.3250 1.0000 0.0000 
1.3375 1.0000 0.0000 
1.3500 1.0000 0.0000 
1.3625 1.0000 0.0000 
1.3750 1.0000 0.0000 
1.3875 1.0000 0.0000 
1.4000 1.0000 0.0000 
1.4125 1.0000 0.0000 
1.4250 1.0000 0.0000 
1.4375 1.0000 0.0000 
1.4500 1.0000 0.0000 
1.4625 1.0000 0.0000 
1.4750 1.0000 0.0000 
1.4875 1.0000 0.0000 
1.5000 1.0000 0.0000 
1.5125 1.0000 0.0000 
1.5250 1.0000 0.0000 
1.5375 1.0000 0.0000 
1.5500 1.0000 0.0000 
1.5625 1.0000 0.0000 
1.5750 1.0000 0.0000 
1.5875 1.0000 0.0000 
1.6000 1.0000 0.0000 
1.6125 1.0000 0.0000 
1.6250 1.0000 0.0000 
1.6375 1.0000 0.0000 
1.6500 1.0000 0.0000 
1.6625 1.0000 0.0000 
1.6750 1.0000 0.0000 
1.6875 1.0000 0.0000 
1.7000 1.0000 0.0000 
1.7125 1.0000 0.0000 
1.7250 1.0000 0.0000 
1.7375 1.0000 0.0000 
1.7500 1.0000 0.0000 
1.7625 1.0000 0.0000 
1.7750 1.0000 0.0000 
1.7875 1.0000 0.0000 
1.8000 1.0000 0.0000 
1.8125 1.0000 0.0000 
1.8250 1.0000 0.0000 
1.8375 1.0000 0.0000 
1.8500 1.0000 0.0000 
1.8625 1.0000 0.0000 
1.8750 1.0000 0.0000 
1.8875 1.0000 0.0000 
1.9000 1.0000 0.0000 
1.9125 1.0000 0.0000 
1.9250 1.0000 0.0000 
1.9375 1.0000 0.0000 
1.9500 1.0000 0.0000 
1.9625 1.0000 0.0000 
1.9750 1.0000 0.0000 
1.9875 1.0000 0.0000 
2.0000 1.0000 0.0000 
2.0125 1.0000 0.0000 
2.0250 1.0000 0.0000 
2.0375 1.0000 0.0000 
2.0500 1.0000 0.0000 
2.0625 1.0000 0.0000 
2.0750 1.0000 0.0000 
2.0875 1.0000 0.0000 
2.1000 1.0000 0.0000 
2.1125 1.0000 0.0000 
2.1250 1.0000 0.0000 
2.1375 1.0000 0.0000 
2.1500 1.0000 0.0000 
2.1625 1.0000 0.0000 
2.1750 1.0000 0.0000 
2.1875 1.0000 0.0000 
2.2000 1.0000 0.0000 
2.2125 1.0000 0.0000 
2.2250 1.0000 0.0000 
2.2375 1.0000 0.0000 
2.2500 1.0000 0.0000 
2.2625 1.0000 0.0000 
2.2750 1.0000 0.0000 
2.2875 1.0000 0.0000 
2.3000 1.0000 0.0000 
2.3125 1.0000 0.0000 
2.3250 1.0000 0.0000 
2.3375 1.0000 0.0000 
2.3500 1.0000 0.0000 
2.3625 1.0000 0.0000 
2.3750 1.0000 0.0000 
2.3875 1.0000 0.0000 
2.4000 1.0000 0.0000 
2.4125 1.0000 0.0000 
2.4250 1.0000 0.0000 
2.4375 1.0000 0.0000 
2.4500 1.0000 0.0000 
2.4625 1.0000 0.0000 
2.4750 1.0000 0.0000 
2.4875 1.0000 0.0000 
2.5000 1.0000 0.0000 
2.5125 1.0000 0.0000 
2.5250 1.0000 0.0000 
2.5375 1.0000 0.0000 
2.5500 1.0000 0.0000 
2.5625 1.0000 0.0000 
2.5750 1.0000 0.0000 
2.5875 1.0000 0.0000 
2.6000 1.0000 0.0000 
2.6125 1.0000 0.0000 
2.6250 1.0000 0.0000 
2.6375 1.0000 0.0000 
2.6500 1.0000 0.0000 
2.6625 1.0000 0.0000 
2.6750 1.0000 0.0000 
2.6875 1.0000 0.0000 
2.7000 1.0000 0.0000 
2.7125 1.0000 0.0000 
2.7250 1.0000 0.0000 
2.7375 1.0000 0.0000 
2.7500 1.0000 0.0000 
2.7625 1.0000 0.0000 
2.7750 1.0000 0.0000 
2.7875 1.0000 0.0000 
2.8000 1.0000 0.0000 
2.8125 1.0000 0.0000 
2.8250 1.0000 0.0000 
2.8375 1.0000 0.0000 
2.8500 1.0000 0.0000 
2.8625 1.0000 0.0000 
2.8750 1.0000 0.0000 
2.8875 1.0000 0.0000 
2.9000 1.0000 0.0000 
2.9125 1.0000 0.0000 
2.9250 1.0000 0.0000 
2.9375 1.0000 0.0000 
2.9500 1.0000 0.0000 
2.9625 1.0000 0.0000 
2.9750 1.0000 0.0000 
2.9875 1.0000 0.0000 
3.0000 0.9875 0.0000 
3.0000 0.9750 0.0000 
3.0000 0.9625 0.0000 
3.0000 0.9500 0.0000 
3.0000 0.9375 0.0000 
3.0000 0.9250 0.0000 
3.0000 0.9125 0.0000 
3.0000 0.9000 0.0000 
3.0000 0.8875 0.0000 
3.0000 0.8750 0.0000 
3.0000 0.8625 0.0000 
3.0000 0.8500 0.0000 
3.0000 0.8375 0.0000 
3.0000 0.8250 0.0000 
3.0000 0.8125 0.0000 
3.0000 0.8000 0.0000 
3.0000 0.7875 0.0000 
3.0000 0.7750 0.0000 
3.0000 0.7625 0.0000 
3.0000 0.7500 0.0000 
3.0000 0.7375 0.0000 
3.0000 0.7250 0.0000 
3.0000 0.7125 0.0000 
3.0000 0.7000 0.0000 
3.0000 0.6875 0.0000 
3.0000 0.6750 0.0000 
3.0000 0.6625 0.0000 
3.0000 0.6500 0.0000 
3.0000 0.6375 0.0000 
3.0000 0.6250 0.0000 
3.0000 0.6125 0.0000 
3.0000 0.6000 0.0000 
3.0000 0.5875 0.0000 
3.0000 0.5750 0.0000 
3.0000 0.5625 0.0000 
3.0000 0.5500 0.0000 
3.0000 0.5375 0.0000 
3.0000 0.5250 0.0000 
3.0000 0.5125 0.0000 
3.0000 0.5000 0.0000 
3.0000 0.4875 0.0000 
3.0000 0.4750 0.0000 
3.0000 0.4625 0.0000 
3.0000 0.4500 0.0000 
3.0000 0.4375 0.0000 
3.0000 0.4250 0.0000 
3.0000 0.4125 0.0000 
3.0000 0.4000 0.0000 
3.0000 0.3875 0.0000 
3.0000 0.3750 0.0000 
3.0000 0.3625 0.0000 
3.0000 0.3500 0.0000 
3.0000 0.3375 0.0000 
3.0000 0.3250 0.0000 
3.0000 0.3125 0.0000 
3.0000 0.3000 0.0000 
3.0000 0.2875 0.0000 
3.0000 0.2750 0.0000 
3.0000 0.2625 0.0000 
3.0000 0.2500 0.0000 
3.0000 0.2375 0.0000 
3.0000 0.2250 0.0000 
3.0000 0.2125 0.0000 
2.9875 0.2000 0.0000 
2.9750 0.2000 0.0000 
2.9625 0.2000 0.0000 
2.9500 0.2000 0.0000 
2.9375 0.2000 0.0000 
2.9250 0.2000 0.0000 
2.9125 0.2000 0.0000 
2.9000 0.2000 0.0000 
2.8875 0.2000 0.0000 
2.8750 0.2000 0.0000 
2.8625 0.2000 0.0000 
2.8500 0.2000 0.0000 
2.8375 0.2000 0.0000 
2.8250 0.2000 0.0000 
2.8125 0.2000 0.0000 
2.8000 0.2000 0.0000 
[...]
POINT_DATA 18915
SCALARS p float
LOOKUP_TABLE default
1208618.4123 
100000.0000 
100000.0000 
494551.3564 
364789.9773 
287694.1934 
481390.4008 
100000.0000 
100000.0000 
100000.0000 
100000.0000 
100000.0000 
100000.0000 
100000.0000 
100000.0000 
100000.0000 
100000.0000 
100000.0000 
100000.0000 
100000.0000 
100000.0000 
100000.0000 
100000.0000 
100000.0000 
100000.0000 
100000.0000 
100000.0000 
100000.0000 
100000.0000 
100000.0000 
100000.0000 
100000.0000 
100000.0000 
100000.0000 
100000.0000 
100000.0000 
100000.0000 
100000.0000 
100000.0000 
100000.0000 
100000.0000 
100000.0000 
100000.0000 
100000.0000 
100000.0000 
100000.0000 
100000.0000 
100000.0000 
100000.0000 
100000.0000 
100000.0000 
100000.0000 
100000.0000 
100000.0000 
100000.0000 
100000.0000 
100000.0000 
100000.0000 
100000.0000 
100000.0000 
100000.0000 
100000.0000 
100000.0000 
100000.0000 
100000.0000 
100000.0000 
100000.0000 
100000.0000 
100000.0000 
100000.0000 
100000.0000 
100000.0000 
100000.0000 
100000.0000 
100000.0000 
100000.0000 
100000.0000 
100000.0000 
100000.0000 
100000.0000 
100000.0000 
100000.0000 
100000.0000 
100000.0000 
100000.0000 
100000.0000 
100000.0000 
100000.0000 
100000.0000 
100000.0000 
100000.0000 
100000.0000 
100000.0000 
100000.0000 
100000.0000 
100000.0000 
100000.0000 
100000.0000 
100000.0000 
100000.0000 
100000.0000 
100000.0000 
100000.0000 
100000.0000 
100000.0000 
100000.0000 
100000.0000 
100000.0000 
100000.0000 
100000.0000 
100000.0000 
100000.0000 
100000.0000 
100000.0000 
100000.0000 
100000.0000 
100000.0000 
100000.0000 
100000.0000 
100000.0000 
100000.0000 
100000.0000 
100000.0000 
100000.0000 
100000.0000 
100000.0000 
100000.0000 
100000.0000 
100000.0000 
100000.0000 
100000.0000 
100000.0132 
113544.8074 
1206387.1279 
1188138.0274 
1178968.5197 
1180916.4498 
1174706.1955 
1171069.2133 
1170509.4360 
1170972.9128 
1170325.2670 
1157938.4082 
1147217.1461 
1142536.8727 
1128824.7999 
1118464.0274 
1110170.8241 
1109159.0686 
1109109.1020 
1095947.6386 
1077106.6445 
1063394.4726 
1051079.8646 
1048635.4311 
971527.4201 
511118.7896 
115646.1497 
100000.0000 
100000.0000 
100000.0000 
100000.0000 
100000.0000 
100000.0000 
100000.0000 
100000.0000 
100000.0000 
100000.0000 
100000.0000 
100000.0000 
100000.0000 
100000.0000 
100000.0000 
100000.0000 
100000.0000 
100000.0000 
100000.0000 
100000.0000 
100000.0000 
100000.0000 
966467.9898 
1053692.1363 
1032446.5259 
1024889.0961 
1017791.8114 
1010557.6068 
1002972.4010 
994820.9146 
986103.6811 
976831.9259 
967003.1786 
956733.0288 
946074.7849 
935046.2075 
923726.4057 
912114.7270 
900264.2189 
888257.6730 
876129.3774 
863907.9512 
851640.1574 
839338.8147 
826926.1108 
814544.1956 
802139.9716 
789728.4170 
777367.9268 
765075.9893 
752858.0111 
740732.6399 
728688.0363 
716725.9705 
704815.3451 
692985.1985 
681235.2910 
669567.3415 
657900.2546 
645884.6822 
633801.6034 
622125.0179 
611051.9919 
600380.2416 
589847.7019 
579504.7406 
569388.7234 
559465.6032 
549767.6336 
540259.0001 
530823.5711 
521479.9481 
512274.7401 
503211.1149 
494342.0417 
485674.4514 
477159.2520 
468793.4992 
460569.3547 
452468.0645 
444516.3336 
436734.3088 
429134.5307 
421698.2616 
414399.6857 
407228.5305 
400192.6600 
393310.5179 
386594.2061 
380021.7370 
373568.2799 
367213.3210 
360970.6649 
354863.1729 
348890.3424 
343051.2104 
337321.3524 
331718.6817 
326240.5932 
320882.3285 
315654.7382 
310547.6010 
305559.2415 
300685.3689 
295926.9181 
291279.8009 
286739.5677 
282321.2581 
278026.2868 
273865.4004 
269845.3921 
265977.5267 
262276.6357 
258759.5732 
255446.3743 
252361.9051 
249537.4512 
247011.2593 
244827.5512 
243043.1724 
241733.5568 
240959.4102 
240799.2246 
241352.3030 
242732.6904 
245049.9099 
248411.8143 
252883.0359 
258493.5300 
265226.5971 
272991.6895 
281661.8336 
290972.9338 
300646.6197 
310415.4614 
319963.2669 
329088.3251 
337608.6085 
345366.4400 
352346.5073 
358562.1137 
364060.0093 
368914.0191 
373194.2622 
376974.4068 
380320.9274 
383294.9633 
385963.6802 
388386.4320 
390586.5646 
392596.8362 
394437.9251 
396117.6289 
397661.0359 
399081.8497 
400376.2084 
401553.7358 
402622.9202 
403582.6585 
404440.2438 
405199.6829 
405854.1392 
406385.7065 
406784.9793 
407194.8632 
407739.2707 
407985.2139 
408120.3792 
408159.5863 
408119.4261 
408012.2254 
407843.9553 
407615.7978 
407325.5856 
406974.5283 
406564.6627 
406096.0904 
405570.4357 
404989.1955 
404351.8489 
403660.5879 
402919.4557 
402130.9467 
401303.7523 
400433.6221 
399513.8644 
398529.8734 
397465.6278 
396336.8247 
395179.1811 
394035.3575 
392931.4859 
391865.5243 
390818.0415 
389760.6219 
388668.4054 
387529.8882 
386338.5054 
385091.7550 
383792.0177 
382447.8903 
381068.6855 
379669.5691 
378265.9044 
376862.1190 
375460.4675 
374064.2352 
372672.5511 
371278.2644 
369877.7180 
368463.4097 
367023.1022 
365542.5875 
364628.0588 
364475.9641 
364343.5146 
363950.4884 
363582.0233 
363381.2813 
363252.0757 
363677.4808 
363634.7258 
364167.5510 
363772.3145 
363073.6082 
362620.2818 
361516.1355 
361223.3950 
360704.7271 
360315.5004 
359882.5350 
359215.1372 
358138.2227 
357156.8731 
356075.5088 
354987.5500 
354321.4568 
353315.9622 
352223.3419 
351275.0399 
350339.7766 
349409.5592 
348436.2624 
347392.5291 
346037.5651 
344303.3165 
342995.9468 
341856.6705 
340587.8592 
339619.5872 
338227.8788 
336429.9281 
334815.7668 
333253.7020 
331698.6951 
330181.5588 
328597.0895 
326973.9072 
325256.4204 
323185.8881 
320905.1780 
318716.9890 
316589.3494 
314540.0256 
312675.2781 
310359.4968 
306673.5545 
303253.9741 
301154.6714 
297118.5581 
294122.7613 
293426.8712 
291407.5430 
289014.9137 
287886.2748 
287434.5878 
284601.8629 
278957.2765 
274266.1489 
270260.3058 
266836.5258 
264187.6422 
262388.6628 
261252.6527 
260636.8936 
260456.9686 
260633.7743 
261112.4719 
261849.5993 
262805.2207 
263941.8564 
265214.5715 
266602.8408 
268108.8136 
269714.1860 
271414.4710 
273201.6251 
275036.0051 
276906.8595 
278847.1330 
280843.5522 
282881.9210 
284950.3996 
287009.1923 
289102.9288 
291337.9543 
293542.2543 
295652.5570 
297829.6455 
300002.9928 
302208.5765 
304435.9236 
306683.2358 
308973.9389 
311236.9599 
313563.4721 
315934.1597 
318311.4746 
320707.8001 
323137.5181 
325591.7029 
328025.6914 
330483.7301 
332956.6855 
335447.6189 
337960.6804 
340515.0602 
343083.5073 
345658.2668 
348247.8985 
350852.3849 
353477.5464 
356102.6783 
358740.9126 
361382.6602 
364033.0806 
366692.6777 
369356.8910 
372014.6851 
374668.6232 
377324.1234 
379983.3523 
382643.8282 
385304.2419 
387965.4207 
390624.6375 
393285.2216 
395942.7917 
398601.0921 
401255.2743 
403901.5260 
406542.5303 
409175.5125 
411800.0658 
414423.1467 
417029.8663 
419624.7172 
422211.8772 
424793.5538 
427377.1923 
429917.9422 
432459.9034 
434998.1004 
437516.6392 
440013.6929 
442498.3855 
444961.8456 
447402.1658 
449819.6418 
452199.5000 
454562.6400 
456905.8917 
459249.1333 
461540.5315 
463795.9470 
466003.6610 
468180.0354 
470335.9020 
472446.4611 
474514.1784 
476525.5419 
478488.3377 
480416.9120 
482286.0116 
484073.0319 
485836.6180 
487529.4288 
489190.6719 
490819.8908 
492268.4897 
493630.3220 
494949.3782 
496174.7332 
497362.7776 
498467.5581 
499401.3212 
500197.0412 
500901.3942 
501504.2510 
501960.7979 
502272.8361 
502445.3828 
502459.7311 
502293.3647 
502090.6673 
501238.3298 
501470.3793 
497418.2160 
502121.2948 
482927.2060 
487959.3082 
469110.6594 
467096.0408 
453289.0984 
444696.3172 
435891.2575 
424664.5182 
419128.1443 
405693.1019 
403753.8193 
388504.1593 
392348.2723 
377784.8758 
385192.5306 
378702.6174 
376606.7171 
372188.6308 
367745.5445 
362679.2425 
357213.3165 
350652.9046 
342293.1417 
331510.1244 
316998.1596 
298193.5509 
268409.6319 
193300.9778 
131527.3175 
124547.4371 
122043.5639 
119248.7167 
116206.4108 
112981.6017 
109646.4725 
106279.4109 
102944.3541 
99696.6515 
96559.9306 
93518.8301 
90536.6883 
87524.9134 
84355.3889 
80904.0771 
77104.8335 
72904.6559 
68327.6227 
63469.1390 
58428.2126 
53367.1414 
48554.1939 
44292.1677 
41116.8949 
39982.4144 
41420.5057 
45846.8729 
55371.6508 
77774.2710 
942341.4547 
1008402.7090 
1048948.2824 
1072976.1247 
1093664.6907 
1113181.0018 
1129390.0279 
1143631.0020 
1153559.7263 
1167481.9404 
1182939.8063 
1177965.3447 
1168285.8602 
1182146.9857 
1185562.1567 
100000.0000 
100000.0000 
100000.0000 
414521.0425 
372052.5293 
332985.6795 
299976.2905 
393350.6161 
717490.9906 
452364.0305 
262638.2951 
326722.7842 
380463.7550 
437246.4007 
540848.0298 
622854.3174 
815048.2573 
1024662.9046 
923880.6131 
259724.7656 
407546.9439 
404352.4625 
484286.4386 
444638.1039 
52300.2722 
500405.9543 
118653.4257 
333612.7661 
502166.2797 
379346.4334 
92951.5072 
351401.8542 
385679.4570 
173187.7990 
403564.3410 
242342.1007 
345491.6326 
100000.0000 
407572.9911 
315910.9803 
353494.9909 
468363.6492 
432579.7103 
291629.2721 
100000.0000 
100000.0000 
284938.8307 
100000.0000 
397340.1567 
522674.7180 
360168.4017 
598396.3030 
568128.3390 
698176.7205 
653571.8495 
352833.4971 
754103.1524 
656463.9179 
739102.7371 
654691.0337 
729749.9204 
720011.1525 
771768.5402 
761852.0791 
335930.6625 
797470.7558 
758203.5475 
791860.7792 
759997.3388 
792747.7962 
763119.6651 
794103.5550 
765396.8157 
793509.6859 
767160.6498 
792328.0066 
768586.3660 
740952.8792 
742866.4908 
710825.3271 
712156.5256 
665501.0255 
711634.8438 
670186.5857 
671721.5156 
635078.7018 
636290.4670 
605927.5465 
632602.9880 
603548.5034 
664004.2048 
626127.5733 
598258.5297 
618985.0521 
591948.7495 
613402.7966 
586996.9841 
610082.7531 
584136.0624 
583460.3380 
558684.3350 
100000.0000 
493854.5881 
486270.5366 
100000.0000 
791757.0380 
397550.5761 
584291.7419 
560267.0974 
608517.4347 
100000.0000 
586470.3955 
609965.1377 
613132.9958 
636054.8690 
273171.4493 
100000.0000 
617224.1339 
639149.3862 
390716.5295 
619991.8697 
641340.5795 
620707.2088 
641817.7902 
359708.0150 
641264.0702 
662105.4452 
620631.9198 
813630.9241 
811351.7955 
830936.2331 
827469.0756 
844961.6110 
840640.5555 
856515.4422 
851437.2540 
866013.1024 
860216.3345 
873738.5935 
867157.9451 
879810.7617 
872354.0128 
884720.0748 
641325.9757 
621631.7505 
325767.7617 
876253.4322 
624110.4375 
606005.9437 
888919.6962 
879082.6579 
610078.0199 
593021.9750 
892559.5717 
598052.9830 
582209.2566 
878937.3090 
886719.2195 
602971.1347 
587853.6267 
816322.4581 
779691.8244 
592417.7670 
577604.3348 
607067.8840 
588880.1608 
100000.0000 
100000.0000 
595049.5235 
609515.9726 
490865.2510 
298519.4671 
391847.2154 
610263.0923 
624886.4228 
183601.0143 
245678.8656 
300669.3810 
403637.4710 
986156.5112 
75062.7043 
100000.0000 
483792.6891 
265219.1443 
209045.1087 
100000.0000 
624660.8779 
639401.0003 
384923.9967 
130082.1576 
108873.8867 
534579.4367 
100743.2181 
102266.2959 
639223.0428 
653854.2768 
100171.6638 
100542.3699 
362235.0631 
1044942.8842 
1104114.1946 
100038.0883 
100114.1047 
100005.8055 
653738.8764 
665446.4958 
639316.3544 
100008.9134 
100005.1033 
700216.9744 
639681.7095 
625222.2236 
100002.4881 
100000.4198 
100000.0000 
893600.7791 
100000.0169 
100000.0056 
817967.7181 
314066.3059 
639775.8356 
626463.5606 
100000.0000 
100000.0000 
100000.0000 
100000.0000 
627508.5607 
614153.6883 
100000.0000 
100000.0000 
100000.0000 
626396.9692 
615637.4541 
100000.0000 
100000.0000 
100000.0000 
100000.0000 
100000.0000 
100000.0000 
100000.0000 
100000.0000 
100000.0000 
100000.0000 
100000.0000 
100000.0000 
100000.0000 
100000.0000 
100000.0000 
100000.0000 
100000.0000 
100000.0000 
100000.0000 
100000.0000 
100000.0000 
100000.0000 
100000.0000 
100000.0000 
100000.0000 
100000.0000 
100000.0000 
100000.0000 
100000.0000 
100000.0000 
100000.0000 
100000.0000 
100000.0000 
100000.0000 
100000.0000 
100000.0000 
100000.0000 
100000.0000 
100000.0000 
100000.0000 
100000.0000 
100000.0000 
100000.0000 
100000.0000 
1091270.5004 
614991.6152 
607374.8318 
616525.8056 
100000.0000 
100000.0000 
100000.0000 
537002.0450 
511352.4514 
514519.6675 
489074.3106 
492931.2416 
467682.1063 
472299.8646 
447045.9797 
452286.8728 
427555.7871 
433282.2252 
409159.1159 
415333.2564 
391558.5504 
398109.3023 
374697.9289 
381632.8496 
358546.2897 
365884.9610 
343528.7594 
351030.0238 
329495.8516 
337089.4846 
316282.1853 
323970.6668 
303989.7655 
311715.5120 
292437.0460 
300228.4998 
308626.1848 
297871.8268 
317911.6688 
307478.6169 
317640.1403 
308324.7444 
297606.6110 
300196.3673 
312370.9269 
308195.8354 
325355.1098 
329069.7446 
348453.1241 
358079.4440 
380052.0514 
396235.4428 
373041.9468 
415462.8617 
391159.2326 
434169.1528 
409571.9807 
449243.8045 
425083.2793 
458746.0417 
435274.6730 
462258.8490 
439639.5960 
460993.1960 
438931.4335 
456743.0468 
435232.8488 
451135.7071 
430347.5387 
445052.3965 
424843.3497 
438842.9428 
419178.8975 
432688.9515 
413551.4433 
426650.0665 
408002.1158 
420731.2304 
402558.6675 
414931.5132 
397202.5450 
409238.6573 
391940.8402 
403650.3404 
386774.3946 
398189.8635 
381720.0003 
392848.7201 
376754.9089 
387608.6323 
371889.8552 
382462.1004 
367096.1056 
377389.0941 
362365.3822 
372388.0561 
357691.1779 
367465.2707 
353112.3017 
362627.7860 
348610.3370 
357875.0277 
344355.3977 
353267.2980 
340480.8930 
348878.3089 
337402.3575 
344904.2953 
335876.6000 
341749.8565 
336890.6641 
340022.9194 
341562.7292 
340532.3776 
350963.1770 
344244.7917 
365143.7995 
351884.8022 
383480.0578 
363774.9991 
404389.7925 
379542.4284 
424914.5622 
397710.7990 
442870.7175 
416360.8076 
456600.8524 
433498.1920 
465390.2975 
447419.4939 
469788.6092 
457252.7997 
470742.3435 
462996.3444 
469492.9785 
465337.5831 
467042.6232 
465234.8442 
464121.4395 
463615.5589 
461210.3852 
461231.4738 
458570.1974 
458609.2175 
456338.8586 
456092.7814 
454580.0808 
453872.0512 
453275.7659 
452035.1930 
452369.1549 
450599.6134 
451856.0708 
449569.9589 
451670.5650 
448929.5173 
451729.4485 
448603.6957 
451918.4568 
448502.7204 
452138.9547 
448536.4783 
452308.5043 
448617.6516 
452310.4401 
448652.9438 
452167.9072 
448587.4862 
451856.1933 
448384.8713 
451329.3820 
448012.2432 
450641.4974 
447463.8252 
449793.5172 
446741.6291 
448800.9485 
445858.1448 
447686.5845 
444830.4456 
446475.8197 
443694.1684 
445185.4133 
442476.6869 
443795.8890 
441176.9027 
442319.4896 
439775.5312 
440728.6755 
438245.2158 
439042.0382 
436619.9143 
437269.0798 
434895.9665 
435410.5459 
433079.9288 
433474.6234 
431172.3457 
431487.7433 
429146.6959 
429512.9050 
427101.2980 
427568.0601 
425099.4498 
425642.6227 
423152.7578 
423680.6779 
421208.0353 
421607.4468 
419258.6546 
419360.8216 
417355.6782 
418294.8300 
415473.2462 
415991.6186 
411838.6006 
413699.4242 
409354.6761 
411437.6192 
406970.0514 
409199.5420 
404611.1438 
406942.2688 
402273.0393 
404641.1537 
399932.1976 
402285.5482 
397560.3139 
399861.7591 
395150.6892 
397369.9824 
392761.2704 
394835.3369 
390483.3886 
392351.1105 
388175.1168 
390336.1937 
385553.7738 
387134.9966 
382749.2820 
384318.9203 
380015.6774 
381549.5777 
377412.6649 
378942.8182 
375912.7511 
376610.6922 
373864.0790 
374121.4532 
371073.1656 
372324.0095 
368812.8057 
370170.8334 
366489.2463 
367909.6699 
364110.1120 
365558.3149 
361725.9596 
363154.9095 
359336.6011 
360721.6121 
356956.2651 
358286.2586 
354589.5823 
355864.9443 
352229.6696 
353460.4671 
349813.9624 
350987.6748 
347385.8067 
348414.3688 
344987.9609 
345856.1094 
342623.7232 
343397.8767 
340287.1808 
341017.5641 
337977.7360 
338681.2318 
335724.3183 
336388.6342 
333464.3053 
334106.9187 
331214.4694 
331834.3517 
329009.9195 
329592.5934 
326809.3042 
327368.8394 
324648.4650 
325181.1274 
322577.4119 
323063.2046 
320563.5587 
321004.6410 
318592.5822 
318993.4313 
316705.1510 
317048.7117 
314885.0522 
315167.6196 
313148.5389 
313355.4014 
311521.7744 
311626.6259 
310013.0353 
309992.2812 
308637.4359 
308466.5108 
307411.1347 
307067.5427 
306368.8391 
305821.0300 
305535.6285 
304754.8797 
304962.0697 
303910.8686 
304685.2139 
303323.5388 
304760.5254 
303047.2309 
305211.4966 
303116.3040 
306088.7436 
303565.6250 
307413.8013 
304441.5762 
309191.4189 
305764.8323 
446717.7381 
426917.2299 
308846.2237 
458659.6483 
377598.2396 
421739.5112 
473296.3332 
439463.3400 
320126.8765 
412687.5155 
308894.1284 
438414.0775 
444441.0465 
365577.4334 
311493.9500 
374918.6047 
345898.7747 
332721.8948 
383266.3641 
348703.9438 
397775.3620 
307584.7493 
314246.4779 
309888.0028 
317359.5115 
312629.2708 
320880.6649 
325872.6757 
315819.5970 
329796.8301 
335336.6476 
339234.9313 
341423.2099 
345146.2017 
347705.5907 
351126.8305 
356477.3493 
358788.1377 
362842.9237 
366351.9739 
353996.0698 
367274.4568 
369998.8074 
372436.1679 
379736.6554 
325955.5354 
359808.4039 
416154.0404 
401253.6502 
361798.8520 
455587.6456 
444410.8875 
396635.4051 
301692.6356 
308031.4637 
310749.3827 
310209.3124 
342329.1836 
429370.9928 
455434.9247 
453266.4841 
469807.3342 
464337.0799 
366093.8082 
332868.2055 
372473.0576 
374654.7043 
374639.2821 
306147.9107 
308826.1325 
374532.3048 
376690.8683 
376819.1089 
372347.1413 
302177.3851 
304325.1848 
374278.6233 
378519.0930 
378764.8236 
372082.5348 
300542.1067 
302733.7122 
419347.7607 
380197.9916 
380532.7256 
373910.8439 
371696.0868 
382164.1090 
382461.6846 
297275.4286 
299034.5974 
373445.6036 
383691.6867 
384068.4673 
294370.0702 
295652.4707 
371205.7738 
585063.0493 
509648.0862 
372894.4774 
385580.3369 
385937.5629 
100000.0000 
100000.0000 
291820.6309 
292608.5239 
523718.8060 
406670.9311 
1148700.1944 
370628.8794 
387040.5183 
387461.4449 
386554.3888 
337240.8586 
372268.2069 
100000.0000 
100002.4870 
423757.1690 
100000.0000 
100000.0000 
289990.3051 
290742.0306 
289671.8690 
293882.5004 
291975.4961 
295666.3022 
293689.8124 
297942.3490 
295885.6012 
300675.4030 
298551.1051 
303837.0683 
301659.2504 
307399.8250 
437194.9441 
299980.8349 
305174.2506 
288868.7529 
260688.1336 
388443.5301 
387917.8212 
369982.5074 
419269.9367 
481075.8207 
100000.0000 
371578.5654 
650419.9752 
100000.0000 
100000.0000 
100000.0000 
311239.6107 
461639.9769 
517733.4568 
211801.3649 
133682.8348 
100000.0000 
503328.0463 
540784.9235 
308929.9394 
299193.4633 
100000.0000 
389190.3270 
388570.8046 
527519.1898 
571946.8626 
369277.7655 
370834.0483 
100000.0000 
100000.0000 
379509.9110 
406004.7693 
454896.8266 
100000.0000 
369630.5014 
876402.3424 
306181.4143 
437238.0713 
446671.8835 
455680.2364 
398888.3721 
566347.9084 
598225.3220 
100000.0000 
580139.2803 
670261.5559 
407655.4087 
765661.7309 
442632.2227 
406831.7344 
444994.2122 
364717.7319 
502454.1250 
355400.7587 
249977.8659 
317629.4671 
403975.4475 
173277.7363 
380866.5871 
855510.5631 
243722.4638 
476721.6694 
662880.5969 
681974.8865 
682868.8512 
701006.7164 
363441.2404 
339222.9713 
382690.3236 
343078.8985 
420622.9068 
105996.2561 
372552.1525 
302602.3332 
296790.0333 
315108.6866 
152611.7699 
111876.4320 
100000.0000 
100000.0000 
389721.8621 
389025.5088 
594978.1686 
626784.7338 
622526.7969 
650341.3359 
641343.0789 
667679.8063 
657060.5293 
671286.9815 
660114.8567 
674178.8701 
663041.1331 
687277.4153 
675913.7109 
688321.4250 
677148.0736 
700988.4162 
689578.3272 
702559.1760 
691434.8355 
714044.1333 
727757.0640 
739505.7742 
741453.5431 
753471.8685 
754446.2162 
766922.5868 
779138.9149 
791808.5129 
766534.7236 
701770.3847 
719079.3452 
300139.7700 
294375.3595 
778130.2154 
765776.3213 
368528.1192 
386207.4032 
387807.7525 
386375.4490 
388068.7315 
370044.1197 
371526.6416 
677531.5050 
386429.2893 
388234.9846 
386361.4006 
388296.0081 
386144.3616 
388235.4536 
390124.9249 
390062.9915 
391790.0049 
391829.2427 
389856.8693 
391753.2508 
389473.1234 
391529.5201 
388879.4669 
391142.6362 
388034.2406 
390558.2862 
386893.3255 
389730.9277 
385403.8024 
388622.9923 